# Specify number of atoms, bonds etc.
10 atoms
1 atom types
9 bonds
1 bond types

# Specify the dimensions of the simulation box
-50.0 50.0 xlo xhi
-50.0 50.0 ylo yhi
-50.0 50.0 zlo zhi

# No comments after this line!

Atoms

1 1 1 0. -45.0 0.
2 1 1 0. -44.0 0.
3 1 1 0. -43.0 0.
4 1 1 0. -42.0 0.
5 1 1 0. -41.0 0.
6 1 1 0. -40.0 0.
7 1 1 0. -39.0 0.
8 1 1 0. -38.0 0.
9 1 1 0. -37.0 0.
10 1 1 0. -36.0 0.

Bonds

1 1 1 2
2 1 2 3
3 1 3 4
4 1 4 5
5 1 5 6
6 1 6 7
7 1 7 8
8 1 8 9
9 1 9 10
