LAMMPS (7 Feb 2024 - Update 1)
OMP_NUM_THREADS environment is not set. Defaulting to 1 thread. (src/comm.cpp:98)
  using 1 OpenMP thread(s) per MPI task
###################################################################
# Simulates a string of particles connected via harmonic springs,
# subject to gravitational force.
# Performs fixed-energy time integration. At the bottom of the
# simulation box we put a reflecting
# boundary, so that the particles bounce on it.
####################################################################


#--------------Parameters-----------------------------------------#

variable steps equal 1e4 # Number of integration timesteps
variable dt equal 2e-3 # Timestep
variable g equal 10.  # Gravitational acceleration
variable m equal 1.  # Particle mass
variable l equal 1.  # Spring rest length
variable k equal 1.  # Spring constant
boundary f f f # Fixed boundaries in all dimensions.

#---------------Define Styles--------------------------------------#
atom_style bond # Atom style used

#---------------Read Data------------------------------------------#
read_data ./configuration # Load data file (configuration)
Reading data file ...
  orthogonal box = (-50 -50 -50) to (50 50 50)
  1 by 1 by 1 MPI processor grid
  reading atoms ...
  10 atoms
  scanning bonds ...
  1 = max bonds/atom
  reading bonds ...
  9 bonds
Finding 1-2 1-3 1-4 neighbors ...
  special bond factors lj:    0        0        0       
  special bond factors coul:  0        0        0       
     2 = max # of 1-2 neighbors
     2 = max # of 1-3 neighbors
     4 = max # of 1-4 neighbors
     6 = max # of special neighbors
  special bonds CPU = 0.000 seconds
  read_data CPU = 0.004 seconds

#------------------Masses------------------------------------------#
mass * $m
mass * 1

#------------------Interactions------------------------------------#
bond_style harmonic # Harmonic springs
bond_coeff 1 $(0.5*v_k) $l # Parameters of bond interactions
bond_coeff 1 0.5 $l 
bond_coeff 1 0.5 1 

# When not including pair interactions, one has to turn off the sorting
# by using this command, otherwise an error occurs.
atom_modify sort 0 0.


#-------------------Fixes------------------------------------------#
variable T equal 0.1 # Temperature
velocity all create $T 123 # Initialise vel Maxwell distribution.
velocity all create 0.1 123 
fix 1 all nve # Microcanonical ensemble (fixed-energy)
fix 2 all addforce 0. $(-v_m*v_g) 0.  # Add constant (gravitational) force
fix 2 all addforce 0. -10 0.  
fix 3 all wall/reflect ylo EDGE # Add a reflecting wall on the lower boundary

#------------Measurements----------------------------------------------#
# Include this for visualisation with with vmd.
dump movie all atom 10 ./movie.lammpstrj

#-----------Run------------------------------------------------#
timestep ${dt} # Set the timestep of the integration.
timestep 0.002 
run ${steps}
run 10000
Per MPI rank memory allocation (min/avg/max) = 3.59 | 3.59 | 3.59 Mbytes
   Step          Temp          E_pair         E_mol          TotEng         Press     
         0   0.1            0              0              0.135          9e-07        
     10000   12.196526      0              12.350271      28.815581      1.6297479e-05
Loop time of 0.0363268 on 1 procs for 10000 steps with 10 atoms

Performance: 47568122.410 tau/day, 275278.486 timesteps/s, 2.753 Matom-step/s
96.3% CPU use with 1 MPI tasks x 1 OpenMP threads

MPI task timing breakdown:
Section |  min time  |  avg time  |  max time  |%varavg| %total
---------------------------------------------------------------
Pair    | 0          | 0          | 0          |   0.0 |  0.00
Bond    | 0.0025692  | 0.0025692  | 0.0025692  |   0.0 |  7.07
Neigh   | 0.00069693 | 0.00069693 | 0.00069693 |   0.0 |  1.92
Comm    | 0.0015929  | 0.0015929  | 0.0015929  |   0.0 |  4.38
Output  | 0.01775    | 0.01775    | 0.01775    |   0.0 | 48.86
Modify  | 0.0054437  | 0.0054437  | 0.0054437  |   0.0 | 14.99
Other   |            | 0.008274   |            |       | 22.78

Nlocal:             10 ave          10 max          10 min
Histogram: 1 0 0 0 0 0 0 0 0 0
Nghost:              0 ave           0 max           0 min
Histogram: 1 0 0 0 0 0 0 0 0 0
Neighs:              0 ave           0 max           0 min
Histogram: 1 0 0 0 0 0 0 0 0 0

Total # of neighbors = 0
Ave neighs/atom = 0
Ave special neighs/atom = 4.8
Neighbor list builds = 1691
Dangerous builds = 0
Total wall time: 0:00:00
