ITEM: TIMESTEP
0
ITEM: NUMBER OF ATOMS
10
ITEM: BOX BOUNDS ff ff ff
-5.0000000000000000e+01 5.0000000000000000e+01
-5.0000000000000000e+01 5.0000000000000000e+01
-5.0000000000000000e+01 5.0000000000000000e+01
ITEM: ATOMS id type xs ys zs
1 1 0.5 0.05 0.5
2 1 0.5 0.06 0.5
3 1 0.5 0.07 0.5
4 1 0.5 0.08 0.5
5 1 0.5 0.09 0.5
6 1 0.5 0.1 0.5
7 1 0.5 0.11 0.5
8 1 0.5 0.12 0.5
9 1 0.5 0.13 0.5
10 1 0.5 0.14 0.5
ITEM: TIMESTEP
10
ITEM: NUMBER OF ATOMS
10
ITEM: BOX BOUNDS ff ff ff
-5.0000000000000000e+01 5.0000000000000000e+01
-5.0000000000000000e+01 5.0000000000000000e+01
-5.0000000000000000e+01 5.0000000000000000e+01
ITEM: ATOMS id type xs ys zs
1 1 0.499916 0.049933 0.500074
2 1 0.500011 0.0600139 0.500072
3 1 0.500097 0.070007 0.499985
4 1 0.500138 0.0799311 0.500062
5 1 0.499963 0.0899499 0.49999
6 1 0.499951 0.100019 0.500076
7 1 0.499952 0.109943 0.499938
8 1 0.500024 0.119994 0.49996
9 1 0.499933 0.130079 0.499929
10 1 0.500015 0.13993 0.499914
ITEM: TIMESTEP
20
ITEM: NUMBER OF ATOMS
10
ITEM: BOX BOUNDS ff ff ff
-5.0000000000000000e+01 5.0000000000000000e+01
-5.0000000000000000e+01 5.0000000000000000e+01
-5.0000000000000000e+01 5.0000000000000000e+01
ITEM: ATOMS id type xs ys zs
1 1 0.499831 0.0498261 0.500148
2 1 0.500021 0.0599878 0.500144
3 1 0.500193 0.069974 0.49997
4 1 0.500276 0.0798223 0.500124
5 1 0.499927 0.0898598 0.49998
6 1 0.499901 0.0999975 0.500151
7 1 0.499904 0.109846 0.499876
8 1 0.500049 0.119948 0.499919
9 1 0.499867 0.130118 0.499858
10 1 0.50003 0.139821 0.499828
ITEM: TIMESTEP
30
ITEM: NUMBER OF ATOMS
10
ITEM: BOX BOUNDS ff ff ff
-5.0000000000000000e+01 5.0000000000000000e+01
-5.0000000000000000e+01 5.0000000000000000e+01
-5.0000000000000000e+01 5.0000000000000000e+01
ITEM: ATOMS id type xs ys zs
1 1 0.499747 0.0496793 0.500222
2 1 0.500032 0.0599217 0.500216
3 1 0.50029 0.069901 0.499955
4 1 0.500415 0.0796735 0.500186
5 1 0.49989 0.0897298 0.49997
6 1 0.499852 0.0999361 0.500227
7 1 0.499857 0.109709 0.499815
8 1 0.500073 0.119862 0.499879
9 1 0.4998 0.130116 0.499788
10 1 0.500045 0.139672 0.499743
ITEM: TIMESTEP
40
ITEM: NUMBER OF ATOMS
10
ITEM: BOX BOUNDS ff ff ff
-5.0000000000000000e+01 5.0000000000000000e+01
-5.0000000000000000e+01 5.0000000000000000e+01
-5.0000000000000000e+01 5.0000000000000000e+01
ITEM: ATOMS id type xs ys zs
1 1 0.499662 0.0494925 0.500295
2 1 0.500043 0.0598154 0.500289
3 1 0.500386 0.0697878 0.49994
4 1 0.500553 0.0794848 0.500248
5 1 0.499854 0.0895598 0.49996
6 1 0.499803 0.0998345 0.500302
7 1 0.499809 0.109532 0.499753
8 1 0.500097 0.119736 0.499839
9 1 0.499734 0.130074 0.499717
10 1 0.50006 0.139482 0.499657
ITEM: TIMESTEP
50
ITEM: NUMBER OF ATOMS
10
ITEM: BOX BOUNDS ff ff ff
-5.0000000000000000e+01 5.0000000000000000e+01
-5.0000000000000000e+01 5.0000000000000000e+01
-5.0000000000000000e+01 5.0000000000000000e+01
ITEM: ATOMS id type xs ys zs
1 1 0.499578 0.0492659 0.500369
2 1 0.500054 0.059669 0.500361
3 1 0.500483 0.0696346 0.499925
4 1 0.500691 0.0792563 0.50031
5 1 0.499817 0.0893499 0.49995
6 1 0.499753 0.0996927 0.500378
7 1 0.499761 0.109315 0.499691
8 1 0.500122 0.119571 0.499798
9 1 0.499667 0.129992 0.499646
10 1 0.500074 0.139253 0.499571
ITEM: TIMESTEP
60
ITEM: NUMBER OF ATOMS
10
ITEM: BOX BOUNDS ff ff ff
-5.0000000000000000e+01 5.0000000000000000e+01
-5.0000000000000000e+01 5.0000000000000000e+01
-5.0000000000000000e+01 5.0000000000000000e+01
ITEM: ATOMS id type xs ys zs
1 1 0.499494 0.0489994 0.500443
2 1 0.500064 0.0594824 0.500433
3 1 0.500579 0.0694412 0.49991
4 1 0.500829 0.078988 0.500372
5 1 0.499781 0.0891001 0.499941
6 1 0.499704 0.0995106 0.500453
7 1 0.499713 0.109059 0.499629
8 1 0.500146 0.119365 0.499758
9 1 0.499601 0.12987 0.499575
10 1 0.500089 0.138985 0.499485
ITEM: TIMESTEP
70
ITEM: NUMBER OF ATOMS
10
ITEM: BOX BOUNDS ff ff ff
-5.0000000000000000e+01 5.0000000000000000e+01
-5.0000000000000000e+01 5.0000000000000000e+01
-5.0000000000000000e+01 5.0000000000000000e+01
ITEM: ATOMS id type xs ys zs
1 1 0.499409 0.0486931 0.500517
2 1 0.500075 0.0592556 0.500505
3 1 0.500676 0.0692076 0.499895
4 1 0.500967 0.07868 0.500434
5 1 0.499744 0.0888103 0.499931
6 1 0.499654 0.0992882 0.500529
7 1 0.499666 0.108763 0.499568
8 1 0.50017 0.119119 0.499718
9 1 0.499534 0.129707 0.499505
10 1 0.500104 0.138676 0.499399
ITEM: TIMESTEP
80
ITEM: NUMBER OF ATOMS
10
ITEM: BOX BOUNDS ff ff ff
-5.0000000000000000e+01 5.0000000000000000e+01
-5.0000000000000000e+01 5.0000000000000000e+01
-5.0000000000000000e+01 5.0000000000000000e+01
ITEM: ATOMS id type xs ys zs
1 1 0.499325 0.0483471 0.500591
2 1 0.500086 0.0589886 0.500577
3 1 0.500772 0.0689338 0.499879
4 1 0.501105 0.0783322 0.500496
5 1 0.499708 0.0884807 0.499921
6 1 0.499605 0.0990254 0.500605
7 1 0.499618 0.108427 0.499506
8 1 0.500194 0.118834 0.499677
9 1 0.499468 0.129503 0.499434
10 1 0.500119 0.138329 0.499314
ITEM: TIMESTEP
90
ITEM: NUMBER OF ATOMS
10
ITEM: BOX BOUNDS ff ff ff
-5.0000000000000000e+01 5.0000000000000000e+01
-5.0000000000000000e+01 5.0000000000000000e+01
-5.0000000000000000e+01 5.0000000000000000e+01
ITEM: ATOMS id type xs ys zs
1 1 0.49924 0.0479613 0.500665
2 1 0.500096 0.0586813 0.500649
3 1 0.500869 0.0686198 0.499864
4 1 0.501243 0.0779448 0.500559
5 1 0.499671 0.0881112 0.499911
6 1 0.499556 0.0987222 0.50068
7 1 0.49957 0.108051 0.499444
8 1 0.500219 0.118508 0.499637
9 1 0.499401 0.129259 0.499363
10 1 0.500134 0.137941 0.499228
ITEM: TIMESTEP
100
ITEM: NUMBER OF ATOMS
10
ITEM: BOX BOUNDS ff ff ff
-5.0000000000000000e+01 5.0000000000000000e+01
-5.0000000000000000e+01 5.0000000000000000e+01
-5.0000000000000000e+01 5.0000000000000000e+01
ITEM: ATOMS id type xs ys zs
1 1 0.499156 0.0475359 0.500739
2 1 0.500107 0.0583337 0.500721
3 1 0.500965 0.0682656 0.499849
4 1 0.501382 0.0775177 0.500621
5 1 0.499635 0.0877019 0.499901
6 1 0.499506 0.0983784 0.500756
7 1 0.499523 0.107636 0.499382
8 1 0.500243 0.118143 0.499596
9 1 0.499334 0.128973 0.499293
10 1 0.500149 0.137514 0.499142
ITEM: TIMESTEP
110
ITEM: NUMBER OF ATOMS
10
ITEM: BOX BOUNDS ff ff ff
-5.0000000000000000e+01 5.0000000000000000e+01
-5.0000000000000000e+01 5.0000000000000000e+01
-5.0000000000000000e+01 5.0000000000000000e+01
ITEM: ATOMS id type xs ys zs
1 1 0.499072 0.0470707 0.500812
2 1 0.500118 0.0579458 0.500794
3 1 0.501062 0.0678711 0.499834
4 1 0.50152 0.0770511 0.500683
5 1 0.499598 0.0872527 0.499891
6 1 0.499457 0.0979942 0.500831
7 1 0.499475 0.107182 0.49932
8 1 0.500267 0.117738 0.499556
9 1 0.499268 0.128647 0.499222
10 1 0.500164 0.137048 0.499056
ITEM: TIMESTEP
120
ITEM: NUMBER OF ATOMS
10
ITEM: BOX BOUNDS ff ff ff
-5.0000000000000000e+01 5.0000000000000000e+01
-5.0000000000000000e+01 5.0000000000000000e+01
-5.0000000000000000e+01 5.0000000000000000e+01
ITEM: ATOMS id type xs ys zs
1 1 0.498988 0.046566 0.500886
2 1 0.500128 0.0575175 0.500866
3 1 0.501158 0.0674362 0.499819
4 1 0.501658 0.0765449 0.500745
5 1 0.499562 0.0867636 0.499882
6 1 0.499408 0.0975693 0.500907
7 1 0.499427 0.106688 0.499258
8 1 0.500291 0.117293 0.499516
9 1 0.499201 0.12828 0.499151
10 1 0.50018 0.136542 0.49897
ITEM: TIMESTEP
130
ITEM: NUMBER OF ATOMS
10
ITEM: BOX BOUNDS ff ff ff
-5.0000000000000000e+01 5.0000000000000000e+01
-5.0000000000000000e+01 5.0000000000000000e+01
-5.0000000000000000e+01 5.0000000000000000e+01
ITEM: ATOMS id type xs ys zs
1 1 0.498903 0.0460216 0.50096
2 1 0.500139 0.0570488 0.500938
3 1 0.501255 0.066961 0.499804
4 1 0.501796 0.0759993 0.500807
5 1 0.499525 0.0862347 0.499872
6 1 0.499358 0.0971038 0.500983
7 1 0.49938 0.106154 0.499196
8 1 0.500315 0.116808 0.499475
9 1 0.499134 0.127872 0.499081
10 1 0.500195 0.135997 0.498885
ITEM: TIMESTEP
140
ITEM: NUMBER OF ATOMS
10
ITEM: BOX BOUNDS ff ff ff
-5.0000000000000000e+01 5.0000000000000000e+01
-5.0000000000000000e+01 5.0000000000000000e+01
-5.0000000000000000e+01 5.0000000000000000e+01
ITEM: ATOMS id type xs ys zs
1 1 0.498819 0.0454377 0.501034
2 1 0.500149 0.0565397 0.50101
3 1 0.501351 0.0664455 0.499788
4 1 0.501934 0.0754142 0.500869
5 1 0.499489 0.085666 0.499862
6 1 0.499309 0.0965977 0.501058
7 1 0.499332 0.105581 0.499134
8 1 0.500339 0.116283 0.499435
9 1 0.499068 0.127422 0.49901
10 1 0.50021 0.135413 0.498799
ITEM: TIMESTEP
150
ITEM: NUMBER OF ATOMS
10
ITEM: BOX BOUNDS ff ff ff
-5.0000000000000000e+01 5.0000000000000000e+01
-5.0000000000000000e+01 5.0000000000000000e+01
-5.0000000000000000e+01 5.0000000000000000e+01
ITEM: ATOMS id type xs ys zs
1 1 0.498735 0.0448142 0.501108
2 1 0.50016 0.0559902 0.501082
3 1 0.501447 0.0658895 0.499773
4 1 0.502072 0.0747897 0.500931
5 1 0.499453 0.0850574 0.499853
6 1 0.49926 0.0960508 0.501134
7 1 0.499284 0.104969 0.499072
8 1 0.500363 0.115719 0.499394
9 1 0.499001 0.126931 0.498939
10 1 0.500225 0.134789 0.498713
ITEM: TIMESTEP
160
ITEM: NUMBER OF ATOMS
10
ITEM: BOX BOUNDS ff ff ff
-5.0000000000000000e+01 5.0000000000000000e+01
-5.0000000000000000e+01 5.0000000000000000e+01
-5.0000000000000000e+01 5.0000000000000000e+01
ITEM: ATOMS id type xs ys zs
1 1 0.498651 0.0441513 0.501182
2 1 0.50017 0.0554001 0.501154
3 1 0.501544 0.0652932 0.499758
4 1 0.50221 0.0741259 0.500994
5 1 0.499416 0.084409 0.499843
6 1 0.49921 0.0954632 0.50121
7 1 0.499237 0.104317 0.49901
8 1 0.500387 0.115114 0.499354
9 1 0.498934 0.126399 0.498869
10 1 0.500241 0.134126 0.498627
ITEM: TIMESTEP
170
ITEM: NUMBER OF ATOMS
10
ITEM: BOX BOUNDS ff ff ff
-5.0000000000000000e+01 5.0000000000000000e+01
-5.0000000000000000e+01 5.0000000000000000e+01
-5.0000000000000000e+01 5.0000000000000000e+01
ITEM: ATOMS id type xs ys zs
1 1 0.498567 0.0434488 0.501256
2 1 0.50018 0.0547696 0.501226
3 1 0.50164 0.0646563 0.499742
4 1 0.502348 0.0734227 0.501056
5 1 0.49938 0.0837208 0.499834
6 1 0.499161 0.0948348 0.501286
7 1 0.499189 0.103627 0.498948
8 1 0.500411 0.11447 0.499313
9 1 0.498867 0.125826 0.498799
10 1 0.500257 0.133424 0.498541
ITEM: TIMESTEP
180
ITEM: NUMBER OF ATOMS
10
ITEM: BOX BOUNDS ff ff ff
-5.0000000000000000e+01 5.0000000000000000e+01
-5.0000000000000000e+01 5.0000000000000000e+01
-5.0000000000000000e+01 5.0000000000000000e+01
ITEM: ATOMS id type xs ys zs
1 1 0.498483 0.042707 0.501329
2 1 0.50019 0.0540986 0.501298
3 1 0.501736 0.063979 0.499727
4 1 0.502486 0.0726803 0.501118
5 1 0.499344 0.0829927 0.499824
6 1 0.499112 0.0941655 0.501361
7 1 0.499142 0.102896 0.498886
8 1 0.500434 0.113786 0.499273
9 1 0.4988 0.125211 0.498728
10 1 0.500273 0.132683 0.498455
ITEM: TIMESTEP
190
ITEM: NUMBER OF ATOMS
10
ITEM: BOX BOUNDS ff ff ff
-5.0000000000000000e+01 5.0000000000000000e+01
-5.0000000000000000e+01 5.0000000000000000e+01
-5.0000000000000000e+01 5.0000000000000000e+01
ITEM: ATOMS id type xs ys zs
1 1 0.498399 0.0419257 0.501403
2 1 0.500201 0.053387 0.501371
3 1 0.501833 0.0632612 0.499711
4 1 0.502624 0.0718987 0.50118
5 1 0.499308 0.0822249 0.499815
6 1 0.499062 0.0934554 0.501437
7 1 0.499094 0.102127 0.498823
8 1 0.500458 0.113063 0.499232
9 1 0.498733 0.124555 0.498658
10 1 0.500289 0.131903 0.498369
ITEM: TIMESTEP
200
ITEM: NUMBER OF ATOMS
10
ITEM: BOX BOUNDS ff ff ff
-5.0000000000000000e+01 5.0000000000000000e+01
-5.0000000000000000e+01 5.0000000000000000e+01
-5.0000000000000000e+01 5.0000000000000000e+01
ITEM: ATOMS id type xs ys zs
1 1 0.498316 0.0411051 0.501477
2 1 0.500211 0.0526348 0.501443
3 1 0.501929 0.0625029 0.499696
4 1 0.502762 0.0710779 0.501243
5 1 0.499272 0.0814172 0.499806
6 1 0.499013 0.0927044 0.501513
7 1 0.499047 0.101318 0.498761
8 1 0.500481 0.112299 0.499191
9 1 0.498666 0.123856 0.498588
10 1 0.500305 0.131084 0.498283
ITEM: TIMESTEP
210
ITEM: NUMBER OF ATOMS
10
ITEM: BOX BOUNDS ff ff ff
-5.0000000000000000e+01 5.0000000000000000e+01
-5.0000000000000000e+01 5.0000000000000000e+01
-5.0000000000000000e+01 5.0000000000000000e+01
ITEM: ATOMS id type xs ys zs
1 1 0.498232 0.0402452 0.501551
2 1 0.500221 0.051842 0.501515
3 1 0.502025 0.061704 0.49968
4 1 0.502899 0.0702179 0.501305
5 1 0.499236 0.0805697 0.499797
6 1 0.498964 0.0919125 0.501589
7 1 0.499 0.10047 0.498698
8 1 0.500504 0.111496 0.49915
9 1 0.498598 0.123117 0.498517
10 1 0.500321 0.130226 0.498197
ITEM: TIMESTEP
220
ITEM: NUMBER OF ATOMS
10
ITEM: BOX BOUNDS ff ff ff
-5.0000000000000000e+01 5.0000000000000000e+01
-5.0000000000000000e+01 5.0000000000000000e+01
-5.0000000000000000e+01 5.0000000000000000e+01
ITEM: ATOMS id type xs ys zs
1 1 0.498148 0.0393459 0.501625
2 1 0.50023 0.0510086 0.501587
3 1 0.502121 0.0608646 0.499664
4 1 0.503037 0.0693189 0.501368
5 1 0.4992 0.0796824 0.499788
6 1 0.498915 0.0910796 0.501665
7 1 0.498952 0.099583 0.498636
8 1 0.500527 0.110653 0.49911
9 1 0.498531 0.122335 0.498447
10 1 0.500338 0.129329 0.498111
ITEM: TIMESTEP
230
ITEM: NUMBER OF ATOMS
10
ITEM: BOX BOUNDS ff ff ff
-5.0000000000000000e+01 5.0000000000000000e+01
-5.0000000000000000e+01 5.0000000000000000e+01
-5.0000000000000000e+01 5.0000000000000000e+01
ITEM: ATOMS id type xs ys zs
1 1 0.498065 0.0384074 0.501699
2 1 0.50024 0.0501345 0.501659
3 1 0.502217 0.0599845 0.499649
4 1 0.503174 0.0683808 0.50143
5 1 0.499165 0.0787552 0.49978
6 1 0.498865 0.0902058 0.501741
7 1 0.498905 0.0986568 0.498573
8 1 0.50055 0.109771 0.499069
9 1 0.498463 0.121512 0.498377
10 1 0.500355 0.128393 0.498025
ITEM: TIMESTEP
240
ITEM: NUMBER OF ATOMS
10
ITEM: BOX BOUNDS ff ff ff
-5.0000000000000000e+01 5.0000000000000000e+01
-5.0000000000000000e+01 5.0000000000000000e+01
-5.0000000000000000e+01 5.0000000000000000e+01
ITEM: ATOMS id type xs ys zs
1 1 0.497982 0.0374296 0.501772
2 1 0.50025 0.0492198 0.501731
3 1 0.502313 0.0590638 0.499633
4 1 0.503312 0.0674037 0.501492
5 1 0.499129 0.0777883 0.499771
6 1 0.498816 0.0892909 0.501817
7 1 0.498858 0.0976914 0.49851
8 1 0.500572 0.108848 0.499028
9 1 0.498395 0.120647 0.498307
10 1 0.500373 0.127418 0.497938
ITEM: TIMESTEP
250
ITEM: NUMBER OF ATOMS
10
ITEM: BOX BOUNDS ff ff ff
-5.0000000000000000e+01 5.0000000000000000e+01
-5.0000000000000000e+01 5.0000000000000000e+01
-5.0000000000000000e+01 5.0000000000000000e+01
ITEM: ATOMS id type xs ys zs
1 1 0.497899 0.0364126 0.501846
2 1 0.500259 0.0482644 0.501803
3 1 0.502409 0.0581025 0.499617
4 1 0.503449 0.0663877 0.501555
5 1 0.499094 0.0767815 0.499763
6 1 0.498767 0.088335 0.501893
7 1 0.498811 0.0966868 0.498447
8 1 0.500595 0.107886 0.498987
9 1 0.498327 0.11974 0.498237
10 1 0.50039 0.126404 0.497852
ITEM: TIMESTEP
260
ITEM: NUMBER OF ATOMS
10
ITEM: BOX BOUNDS ff ff ff
-5.0000000000000000e+01 5.0000000000000000e+01
-5.0000000000000000e+01 5.0000000000000000e+01
-5.0000000000000000e+01 5.0000000000000000e+01
ITEM: ATOMS id type xs ys zs
1 1 0.497816 0.0353565 0.50192
2 1 0.500269 0.0472683 0.501875
3 1 0.502505 0.0571005 0.4996
4 1 0.503586 0.0653327 0.501618
5 1 0.499059 0.0757349 0.499755
6 1 0.498718 0.0873381 0.501969
7 1 0.498764 0.0956432 0.498384
8 1 0.500617 0.106884 0.498946
9 1 0.498259 0.118791 0.498168
10 1 0.500408 0.125351 0.497766
ITEM: TIMESTEP
270
ITEM: NUMBER OF ATOMS
10
ITEM: BOX BOUNDS ff ff ff
-5.0000000000000000e+01 5.0000000000000000e+01
-5.0000000000000000e+01 5.0000000000000000e+01
-5.0000000000000000e+01 5.0000000000000000e+01
ITEM: ATOMS id type xs ys zs
1 1 0.497733 0.0342612 0.501994
2 1 0.500278 0.0462315 0.501947
3 1 0.5026 0.0560578 0.499584
4 1 0.503723 0.0642388 0.50168
5 1 0.499024 0.0746485 0.499747
6 1 0.498668 0.0863001 0.502045
7 1 0.498717 0.0945604 0.49832
8 1 0.500638 0.105843 0.498905
9 1 0.498191 0.117799 0.498098
10 1 0.500427 0.12426 0.497679
ITEM: TIMESTEP
280
ITEM: NUMBER OF ATOMS
10
ITEM: BOX BOUNDS ff ff ff
-5.0000000000000000e+01 5.0000000000000000e+01
-5.0000000000000000e+01 5.0000000000000000e+01
-5.0000000000000000e+01 5.0000000000000000e+01
ITEM: ATOMS id type xs ys zs
1 1 0.497651 0.0331267 0.502068
2 1 0.500287 0.045154 0.502019
3 1 0.502696 0.0549744 0.499568
4 1 0.50386 0.063106 0.501743
5 1 0.49899 0.0735222 0.49974
6 1 0.498619 0.085221 0.502121
7 1 0.49867 0.0934386 0.498257
8 1 0.50066 0.104761 0.498863
9 1 0.498122 0.116766 0.498029
10 1 0.500445 0.123129 0.497593
ITEM: TIMESTEP
290
ITEM: NUMBER OF ATOMS
10
ITEM: BOX BOUNDS ff ff ff
-5.0000000000000000e+01 5.0000000000000000e+01
-5.0000000000000000e+01 5.0000000000000000e+01
-5.0000000000000000e+01 5.0000000000000000e+01
ITEM: ATOMS id type xs ys zs
1 1 0.497568 0.0319532 0.502142
2 1 0.500296 0.0440357 0.502091
3 1 0.502791 0.0538502 0.499551
4 1 0.503997 0.0619344 0.501806
5 1 0.498955 0.0723561 0.499732
6 1 0.49857 0.0841008 0.502197
7 1 0.498624 0.0922777 0.498193
8 1 0.500681 0.103641 0.498822
9 1 0.498053 0.115691 0.49796
10 1 0.500465 0.12196 0.497506
ITEM: TIMESTEP
300
ITEM: NUMBER OF ATOMS
10
ITEM: BOX BOUNDS ff ff ff
-5.0000000000000000e+01 5.0000000000000000e+01
-5.0000000000000000e+01 5.0000000000000000e+01
-5.0000000000000000e+01 5.0000000000000000e+01
ITEM: ATOMS id type xs ys zs
1 1 0.497486 0.0307406 0.502215
2 1 0.500305 0.0428766 0.502163
3 1 0.502886 0.0526854 0.499535
4 1 0.504133 0.060724 0.501868
5 1 0.498921 0.0711502 0.499725
6 1 0.498521 0.0829395 0.502273
7 1 0.498577 0.0910777 0.49813
8 1 0.500702 0.10248 0.498781
9 1 0.497984 0.114574 0.49789
10 1 0.500484 0.120752 0.497419
ITEM: TIMESTEP
310
ITEM: NUMBER OF ATOMS
10
ITEM: BOX BOUNDS ff ff ff
-5.0000000000000000e+01 5.0000000000000000e+01
-5.0000000000000000e+01 5.0000000000000000e+01
-5.0000000000000000e+01 5.0000000000000000e+01
ITEM: ATOMS id type xs ys zs
1 1 0.497404 0.0294889 0.502289
2 1 0.500313 0.0416768 0.502235
3 1 0.502982 0.0514797 0.499518
4 1 0.504269 0.0594749 0.501931
5 1 0.498888 0.0699044 0.499719
6 1 0.498472 0.0817371 0.502349
7 1 0.498531 0.0898387 0.498066
8 1 0.500723 0.10128 0.498739
9 1 0.497915 0.113414 0.497821
10 1 0.500504 0.119506 0.497333
ITEM: TIMESTEP
320
ITEM: NUMBER OF ATOMS
10
ITEM: BOX BOUNDS ff ff ff
-5.0000000000000000e+01 5.0000000000000000e+01
-5.0000000000000000e+01 5.0000000000000000e+01
-5.0000000000000000e+01 5.0000000000000000e+01
ITEM: ATOMS id type xs ys zs
1 1 0.497323 0.0281983 0.502363
2 1 0.500321 0.0404361 0.502306
3 1 0.503077 0.0502333 0.499501
4 1 0.504405 0.058187 0.501994
5 1 0.498854 0.0686188 0.499712
6 1 0.498423 0.0804936 0.502425
7 1 0.498484 0.0885606 0.498002
8 1 0.500743 0.10004 0.498697
9 1 0.497845 0.112212 0.497753
10 1 0.500525 0.11822 0.497246
ITEM: TIMESTEP
330
ITEM: NUMBER OF ATOMS
10
ITEM: BOX BOUNDS ff ff ff
-5.0000000000000000e+01 5.0000000000000000e+01
-5.0000000000000000e+01 5.0000000000000000e+01
-5.0000000000000000e+01 5.0000000000000000e+01
ITEM: ATOMS id type xs ys zs
1 1 0.497241 0.0268686 0.502437
2 1 0.50033 0.0391547 0.502378
3 1 0.503171 0.0489461 0.499484
4 1 0.50454 0.0568604 0.502057
5 1 0.498821 0.0672933 0.499706
6 1 0.498374 0.0792089 0.502501
7 1 0.498438 0.0872435 0.497938
8 1 0.500763 0.0987599 0.498656
9 1 0.497775 0.110968 0.497684
10 1 0.500546 0.116896 0.497159
ITEM: TIMESTEP
340
ITEM: NUMBER OF ATOMS
10
ITEM: BOX BOUNDS ff ff ff
-5.0000000000000000e+01 5.0000000000000000e+01
-5.0000000000000000e+01 5.0000000000000000e+01
-5.0000000000000000e+01 5.0000000000000000e+01
ITEM: ATOMS id type xs ys zs
1 1 0.49716 0.0255 0.502511
2 1 0.500338 0.0378324 0.50245
3 1 0.503266 0.0476181 0.499467
4 1 0.504676 0.0554952 0.502119
5 1 0.498788 0.065928 0.499701
6 1 0.498325 0.0778831 0.502577
7 1 0.498392 0.0858874 0.497874
8 1 0.500782 0.0974406 0.498614
9 1 0.497704 0.109682 0.497616
10 1 0.500568 0.115533 0.497072
ITEM: TIMESTEP
350
ITEM: NUMBER OF ATOMS
10
ITEM: BOX BOUNDS ff ff ff
-5.0000000000000000e+01 5.0000000000000000e+01
-5.0000000000000000e+01 5.0000000000000000e+01
-5.0000000000000000e+01 5.0000000000000000e+01
ITEM: ATOMS id type xs ys zs
1 1 0.497079 0.0240924 0.502584
2 1 0.500345 0.0364694 0.502522
3 1 0.503361 0.0462492 0.49945
4 1 0.504811 0.0540912 0.502182
5 1 0.498756 0.0645228 0.499695
6 1 0.498276 0.0765162 0.502653
7 1 0.498346 0.0844922 0.49781
8 1 0.500801 0.0960815 0.498572
9 1 0.497634 0.108354 0.497547
10 1 0.500591 0.114131 0.496985
ITEM: TIMESTEP
360
ITEM: NUMBER OF ATOMS
10
ITEM: BOX BOUNDS ff ff ff
-5.0000000000000000e+01 5.0000000000000000e+01
-5.0000000000000000e+01 5.0000000000000000e+01
-5.0000000000000000e+01 5.0000000000000000e+01
ITEM: ATOMS id type xs ys zs
1 1 0.496998 0.0226459 0.502658
2 1 0.500353 0.0350654 0.502593
3 1 0.503455 0.0448395 0.499433
4 1 0.504945 0.0526487 0.502245
5 1 0.498724 0.0630777 0.499691
6 1 0.498227 0.0751081 0.502729
7 1 0.498301 0.0830579 0.497745
8 1 0.50082 0.0946828 0.49853
9 1 0.497562 0.106983 0.497479
10 1 0.500614 0.112691 0.496897
ITEM: TIMESTEP
370
ITEM: NUMBER OF ATOMS
10
ITEM: BOX BOUNDS ff ff ff
-5.0000000000000000e+01 5.0000000000000000e+01
-5.0000000000000000e+01 5.0000000000000000e+01
-5.0000000000000000e+01 5.0000000000000000e+01
ITEM: ATOMS id type xs ys zs
1 1 0.496918 0.0211606 0.502732
2 1 0.50036 0.0336207 0.502665
3 1 0.503549 0.043389 0.499415
4 1 0.50508 0.0511675 0.502308
5 1 0.498693 0.0615928 0.499686
6 1 0.498178 0.0736589 0.502804
7 1 0.498255 0.0815846 0.497681
8 1 0.500838 0.0932444 0.498487
9 1 0.497491 0.10557 0.497412
10 1 0.500638 0.111212 0.49681
ITEM: TIMESTEP
380
ITEM: NUMBER OF ATOMS
10
ITEM: BOX BOUNDS ff ff ff
-5.0000000000000000e+01 5.0000000000000000e+01
-5.0000000000000000e+01 5.0000000000000000e+01
-5.0000000000000000e+01 5.0000000000000000e+01
ITEM: ATOMS id type xs ys zs
1 1 0.496838 0.0196363 0.502806
2 1 0.500367 0.0321351 0.502736
3 1 0.503643 0.0418976 0.499398
4 1 0.505213 0.0496478 0.502371
5 1 0.498662 0.060068 0.499682
6 1 0.498129 0.0721685 0.50288
7 1 0.49821 0.0800723 0.497617
8 1 0.500856 0.0917663 0.498445
9 1 0.497419 0.104114 0.497344
10 1 0.500662 0.109694 0.496722
ITEM: TIMESTEP
390
ITEM: NUMBER OF ATOMS
10
ITEM: BOX BOUNDS ff ff ff
-5.0000000000000000e+01 5.0000000000000000e+01
-5.0000000000000000e+01 5.0000000000000000e+01
-5.0000000000000000e+01 5.0000000000000000e+01
ITEM: ATOMS id type xs ys zs
1 1 0.496759 0.0180732 0.50288
2 1 0.500374 0.0306087 0.502807
3 1 0.503737 0.0403654 0.49938
4 1 0.505347 0.0480894 0.502434
5 1 0.498631 0.0585033 0.499679
6 1 0.49808 0.070637 0.502955
7 1 0.498165 0.0785209 0.497552
8 1 0.500873 0.0902485 0.498402
9 1 0.497347 0.102617 0.497277
10 1 0.500687 0.108137 0.496634
ITEM: TIMESTEP
400
ITEM: NUMBER OF ATOMS
10
ITEM: BOX BOUNDS ff ff ff
-5.0000000000000000e+01 5.0000000000000000e+01
-5.0000000000000000e+01 5.0000000000000000e+01
-5.0000000000000000e+01 5.0000000000000000e+01
ITEM: ATOMS id type xs ys zs
1 1 0.496679 0.0164713 0.502953
2 1 0.500381 0.0290413 0.502878
3 1 0.50383 0.0387923 0.499362
4 1 0.50548 0.0464926 0.502497
5 1 0.498601 0.0568987 0.499676
6 1 0.498031 0.0690643 0.50303
7 1 0.49812 0.0769305 0.497488
8 1 0.50089 0.088691 0.498359
9 1 0.497274 0.101077 0.49721
10 1 0.500713 0.106541 0.496547
ITEM: TIMESTEP
410
ITEM: NUMBER OF ATOMS
10
ITEM: BOX BOUNDS ff ff ff
-5.0000000000000000e+01 5.0000000000000000e+01
-5.0000000000000000e+01 5.0000000000000000e+01
-5.0000000000000000e+01 5.0000000000000000e+01
ITEM: ATOMS id type xs ys zs
1 1 0.4966 0.0148306 0.503027
2 1 0.500387 0.0274332 0.502949
3 1 0.503923 0.0371782 0.499344
4 1 0.505612 0.0448571 0.50256
5 1 0.498572 0.0552542 0.499673
6 1 0.497983 0.0674505 0.503105
7 1 0.498075 0.075301 0.497423
8 1 0.500906 0.0870939 0.498317
9 1 0.497201 0.0994944 0.497143
10 1 0.50074 0.104907 0.496459
ITEM: TIMESTEP
420
ITEM: NUMBER OF ATOMS
10
ITEM: BOX BOUNDS ff ff ff
-5.0000000000000000e+01 5.0000000000000000e+01
-5.0000000000000000e+01 5.0000000000000000e+01
-5.0000000000000000e+01 5.0000000000000000e+01
ITEM: ATOMS id type xs ys zs
1 1 0.496522 0.0131511 0.503101
2 1 0.500394 0.0257841 0.50302
3 1 0.504016 0.0355233 0.499326
4 1 0.505744 0.0431832 0.502622
5 1 0.498543 0.0535698 0.499671
6 1 0.497934 0.0657956 0.50318
7 1 0.49803 0.0736325 0.497358
8 1 0.500922 0.085457 0.498273
9 1 0.497128 0.0978698 0.497076
10 1 0.500767 0.103234 0.49637
ITEM: TIMESTEP
430
ITEM: NUMBER OF ATOMS
10
ITEM: BOX BOUNDS ff ff ff
-5.0000000000000000e+01 5.0000000000000000e+01
-5.0000000000000000e+01 5.0000000000000000e+01
-5.0000000000000000e+01 5.0000000000000000e+01
ITEM: ATOMS id type xs ys zs
1 1 0.496443 0.0114328 0.503175
2 1 0.5004 0.0240943 0.503091
3 1 0.504109 0.0338275 0.499308
4 1 0.505876 0.0414708 0.502685
5 1 0.498515 0.0518455 0.49967
6 1 0.497885 0.0640995 0.503255
7 1 0.497986 0.0719249 0.497294
8 1 0.500937 0.0837805 0.49823
9 1 0.497054 0.0962029 0.49701
10 1 0.500795 0.101521 0.496282
ITEM: TIMESTEP
440
ITEM: NUMBER OF ATOMS
10
ITEM: BOX BOUNDS ff ff ff
-5.0000000000000000e+01 5.0000000000000000e+01
-5.0000000000000000e+01 5.0000000000000000e+01
-5.0000000000000000e+01 5.0000000000000000e+01
ITEM: ATOMS id type xs ys zs
1 1 0.496365 0.00967574 0.503248
2 1 0.500405 0.0223635 0.503162
3 1 0.504201 0.0320908 0.49929
4 1 0.506007 0.0397198 0.502748
5 1 0.498487 0.0500813 0.499669
6 1 0.497837 0.0623624 0.503329
7 1 0.497942 0.0701782 0.497229
8 1 0.500952 0.0820642 0.498187
9 1 0.496979 0.0944936 0.496944
10 1 0.500824 0.0997704 0.496194
ITEM: TIMESTEP
450
ITEM: NUMBER OF ATOMS
10
ITEM: BOX BOUNDS ff ff ff
-5.0000000000000000e+01 5.0000000000000000e+01
-5.0000000000000000e+01 5.0000000000000000e+01
-5.0000000000000000e+01 5.0000000000000000e+01
ITEM: ATOMS id type xs ys zs
1 1 0.496288 0.00787996 0.503322
2 1 0.500411 0.0205919 0.503232
3 1 0.504294 0.0303132 0.499272
4 1 0.506137 0.0379303 0.502811
5 1 0.49846 0.0482772 0.499669
6 1 0.497788 0.0605841 0.503403
7 1 0.497898 0.0683924 0.497165
8 1 0.500966 0.0803082 0.498143
9 1 0.496905 0.0927421 0.496878
10 1 0.500854 0.0979805 0.496105
ITEM: TIMESTEP
460
ITEM: NUMBER OF ATOMS
10
ITEM: BOX BOUNDS ff ff ff
-5.0000000000000000e+01 5.0000000000000000e+01
-5.0000000000000000e+01 5.0000000000000000e+01
-5.0000000000000000e+01 5.0000000000000000e+01
ITEM: ATOMS id type xs ys zs
1 1 0.496211 0.00604546 0.503396
2 1 0.500416 0.0187794 0.503303
3 1 0.504386 0.0284947 0.499253
4 1 0.506267 0.0361024 0.502873
5 1 0.498434 0.0464332 0.49967
6 1 0.49774 0.0587647 0.503476
7 1 0.497854 0.0665676 0.4971
8 1 0.500979 0.0785125 0.498099
9 1 0.496829 0.0909484 0.496813
10 1 0.500884 0.0961517 0.496016
ITEM: TIMESTEP
470
ITEM: NUMBER OF ATOMS
10
ITEM: BOX BOUNDS ff ff ff
-5.0000000000000000e+01 5.0000000000000000e+01
-5.0000000000000000e+01 5.0000000000000000e+01
-5.0000000000000000e+01 5.0000000000000000e+01
ITEM: ATOMS id type xs ys zs
1 1 0.496134 0.00417225 0.503469
2 1 0.500421 0.016926 0.503373
3 1 0.504477 0.0266353 0.499235
4 1 0.506396 0.034236 0.502936
5 1 0.498409 0.0445493 0.499671
6 1 0.497691 0.0569042 0.50355
7 1 0.49781 0.0647036 0.497036
8 1 0.500992 0.0766771 0.498055
9 1 0.496754 0.0891124 0.496747
10 1 0.500916 0.0942839 0.495927
ITEM: TIMESTEP
480
ITEM: NUMBER OF ATOMS
10
ITEM: BOX BOUNDS ff ff ff
-5.0000000000000000e+01 5.0000000000000000e+01
-5.0000000000000000e+01 5.0000000000000000e+01
-5.0000000000000000e+01 5.0000000000000000e+01
ITEM: ATOMS id type xs ys zs
1 1 0.496058 0.00226035 0.503543
2 1 0.500426 0.0150318 0.503443
3 1 0.504568 0.0247349 0.499217
4 1 0.506524 0.0323311 0.502998
5 1 0.498384 0.0426254 0.499673
6 1 0.497643 0.0550026 0.503623
7 1 0.497767 0.0628005 0.496972
8 1 0.501004 0.074802 0.498011
9 1 0.496678 0.0872341 0.496682
10 1 0.500948 0.0923772 0.495838
ITEM: TIMESTEP
490
ITEM: NUMBER OF ATOMS
10
ITEM: BOX BOUNDS ff ff ff
-5.0000000000000000e+01 5.0000000000000000e+01
-5.0000000000000000e+01 5.0000000000000000e+01
-5.0000000000000000e+01 5.0000000000000000e+01
ITEM: ATOMS id type xs ys zs
1 1 0.495983 0.000309782 0.503617
2 1 0.50043 0.0130967 0.503513
3 1 0.504659 0.0227937 0.499198
4 1 0.506651 0.0303877 0.50306
5 1 0.49836 0.0406616 0.499676
6 1 0.497595 0.05306 0.503695
7 1 0.497724 0.0608583 0.496908
8 1 0.501015 0.0728871 0.497966
9 1 0.496601 0.0853137 0.496618
10 1 0.500981 0.0904314 0.495749
ITEM: TIMESTEP
500
ITEM: NUMBER OF ATOMS
10
ITEM: BOX BOUNDS ff ff ff
-5.0000000000000000e+01 5.0000000000000000e+01
-5.0000000000000000e+01 5.0000000000000000e+01
-5.0000000000000000e+01 5.0000000000000000e+01
ITEM: ATOMS id type xs ys zs
1 1 0.495907 0.00165148 0.50369
2 1 0.500434 0.0111209 0.503582
3 1 0.50475 0.0208115 0.49918
4 1 0.506778 0.0284059 0.503123
5 1 0.498337 0.0386579 0.499679
6 1 0.497547 0.0510763 0.503767
7 1 0.497681 0.058877 0.496844
8 1 0.501026 0.0709325 0.497922
9 1 0.496524 0.083351 0.496553
10 1 0.501015 0.0884467 0.49566
ITEM: TIMESTEP
510
ITEM: NUMBER OF ATOMS
10
ITEM: BOX BOUNDS ff ff ff
-5.0000000000000000e+01 5.0000000000000000e+01
-5.0000000000000000e+01 5.0000000000000000e+01
-5.0000000000000000e+01 5.0000000000000000e+01
ITEM: ATOMS id type xs ys zs
1 1 0.495832 0.00357371 0.503764
2 1 0.500439 0.00910543 0.503652
3 1 0.50484 0.0187884 0.499161
4 1 0.506904 0.0263856 0.503185
5 1 0.498315 0.0366142 0.499683
6 1 0.497499 0.0490516 0.503838
7 1 0.497639 0.0568565 0.49678
8 1 0.501036 0.0689381 0.497877
9 1 0.496447 0.0813462 0.496489
10 1 0.50105 0.0864228 0.49557
ITEM: TIMESTEP
520
ITEM: NUMBER OF ATOMS
10
ITEM: BOX BOUNDS ff ff ff
-5.0000000000000000e+01 5.0000000000000000e+01
-5.0000000000000000e+01 5.0000000000000000e+01
-5.0000000000000000e+01 5.0000000000000000e+01
ITEM: ATOMS id type xs ys zs
1 1 0.495756 0.00545519 0.503838
2 1 0.500444 0.00705122 0.503721
3 1 0.50493 0.0167244 0.499143
4 1 0.507029 0.0243268 0.503246
5 1 0.498293 0.0345306 0.499688
6 1 0.49745 0.0469858 0.503909
7 1 0.497597 0.0547968 0.496717
8 1 0.501045 0.066904 0.497832
9 1 0.49637 0.0792993 0.496426
10 1 0.501085 0.0843599 0.49548
ITEM: TIMESTEP
530
ITEM: NUMBER OF ATOMS
10
ITEM: BOX BOUNDS ff ff ff
-5.0000000000000000e+01 5.0000000000000000e+01
-5.0000000000000000e+01 5.0000000000000000e+01
-5.0000000000000000e+01 5.0000000000000000e+01
ITEM: ATOMS id type xs ys zs
1 1 0.495678 0.00729616 0.503912
2 1 0.500452 0.00495805 0.50379
3 1 0.50502 0.0146194 0.499125
4 1 0.507153 0.0222295 0.503308
5 1 0.498273 0.032407 0.499694
6 1 0.497403 0.044879 0.50398
7 1 0.497555 0.052698 0.496654
8 1 0.501053 0.06483 0.497786
9 1 0.496292 0.0772102 0.496362
10 1 0.501121 0.0822578 0.49539
ITEM: TIMESTEP
540
ITEM: NUMBER OF ATOMS
10
ITEM: BOX BOUNDS ff ff ff
-5.0000000000000000e+01 5.0000000000000000e+01
-5.0000000000000000e+01 5.0000000000000000e+01